HEADER
"PSFversion" "1.00"
"I7_I0_MM3n I7_I0_MM2n I7_I0_MM5n I7_I0_MM4n I7_I1_MM3n I7_I1_MM2n I7_I1_MM5n I7_I1_MM4n I7_I2_MM3n I7_I2_MM2n I7_I2_MM5n I7_I2_MM4n I7_I3_MM3n I7_I3_MM2n I7_I3_MM5n I7_I3_MM4n I7_I6_MM4n I7_I6_MM7n I7_I5_MM2n I7_I5_MM1n I7_I6_MM9n I7_I6_MM3n I7_I6_MM5n I7_I5_I0_MM1n I7_I5_MM3n I7_I5_MM0n I6_I0_MM3n I6_I0_MM2n I6_I0_MM5n I6_I0_MM4n I6_I1_MM3n I6_I1_MM2n I6_I1_MM5n I6_I1_MM4n I6_I2_MM3n I6_I2_MM2n I6_I2_MM5n I6_I2_MM4n I6_I3_MM3n I6_I3_MM2n I6_I3_MM5n I6_I3_MM4n I6_I6_MM4n I6_I6_MM7n I6_I5_MM2n I6_I5_MM1n I6_I6_MM9n I6_I6_MM3n I6_I6_MM5n I6_I5_I0_MM1n I6_I5_MM3n I6_I5_MM0n I5_I0_MM3n I5_I0_MM2n I5_I0_MM5n I5_I0_MM4n I5_I1_MM3n I5_I1_MM2n I5_I1_MM5n I5_I1_MM4n I5_I2_MM3n I5_I2_MM2n I5_I2_MM5n I5_I2_MM4n I5_I3_MM3n I5_I3_MM2n I5_I3_MM5n I5_I3_MM4n I5_I6_MM4n I5_I6_MM7n I5_I5_MM2n I5_I5_MM1n I5_I6_MM9n I5_I6_MM3n I5_I6_MM5n I5_I5_I0_MM1n I5_I5_MM3n I5_I5_MM0n I4_I0_MM3n I4_I0_MM2n I4_I0_MM5n I4_I0_MM4n I4_I1_MM3n I4_I1_MM2n I4_I1_MM5n I4_I1_MM4n I4_I2_MM3n I4_I2_MM2n I4_I2_MM5n I4_I2_MM4n I4_I3_MM3n I4_I3_MM2n I4_I3_MM5n I4_I3_MM4n I4_I6_MM4n I4_I6_MM7n I4_I5_MM2n I4_I5_MM1n I4_I6_MM9n I4_I6_MM3n I4_I6_MM5n I4_I5_I0_MM1n I4_I5_MM3n I4_I5_MM0n" "NCSU_Devices_FreePDK45_NMOS_VTG_spectre"
"I7_I0_MM7n I7_I0_MM6n I7_I1_MM7n I7_I1_MM6n I7_I2_MM7n I7_I2_MM6n I7_I3_MM7n I7_I3_MM6n I7_I6_MM8n I7_I6_MM0n I7_I5_I0_MM0n I7_I6_MM6n I7_I4_MM2n I7_I4_MM1n I7_I6_MM2n I7_I6_MM1n I7_I4_MM2@2n I7_I4_MM0n I6_I0_MM7n I6_I0_MM6n I6_I1_MM7n I6_I1_MM6n I6_I2_MM7n I6_I2_MM6n I6_I3_MM7n I6_I3_MM6n I6_I6_MM8n I6_I6_MM0n I6_I5_I0_MM0n I6_I6_MM6n I6_I4_MM2n I6_I4_MM1n I6_I6_MM2n I6_I6_MM1n I6_I4_MM2@2n I6_I4_MM0n I5_I0_MM7n I5_I0_MM6n I5_I1_MM7n I5_I1_MM6n I5_I2_MM7n I5_I2_MM6n I5_I3_MM7n I5_I3_MM6n I5_I6_MM8n I5_I6_MM0n I5_I5_I0_MM0n I5_I6_MM6n I5_I4_MM2n I5_I4_MM1n I5_I6_MM2n I5_I6_MM1n I5_I4_MM2@2n I5_I4_MM0n I4_I0_MM7n I4_I0_MM6n I4_I1_MM7n I4_I1_MM6n I4_I2_MM7n I4_I2_MM6n I4_I3_MM7n I4_I3_MM6n I4_I6_MM8n I4_I6_MM0n I4_I5_I0_MM0n I4_I6_MM6n I4_I4_MM2n I4_I4_MM1n I4_I6_MM2n I4_I6_MM1n I4_I4_MM2@2n I4_I4_MM0n" "NCSU_Devices_FreePDK45_PMOS_VTG_spectre"
"cc_4295n cc_4294n cc_4293n cc_4292n cc_4291n cc_4290n cc_4289n cc_4288n cc_4287n cc_4286n cc_4285n cc_4284n cc_4283n cc_4282n cc_4281n cc_4280n cc_4279n cc_4278n cc_4277n cc_4276n cc_4275n cc_4274n cc_4273n cc_4272n cc_4271n cc_4270n cc_4269n cc_4268n cc_4267n cc_4266n cc_4265n cc_4264n cc_4263n cc_4262n cc_4261n cc_4260n cc_4259n cc_4258n cc_4257n cc_4256n cc_4255n cc_4254n cc_4253n cc_4252n cc_4251n cc_4250n cc_4249n cc_4248n cc_4247n cc_4246n cc_4245n cc_4244n cc_4243n cc_4242n cc_4241n cc_4240n cc_4239n cc_4238n cc_4237n cc_4236n cc_4235n cc_4234n cc_4233n cc_4232n cc_4231n cc_4230n cc_4229n cc_4228n cc_4227n cc_4226n cc_4225n cc_4224n cc_4223n cc_4222n cc_4221n cc_4220n cc_4219n cc_4218n cc_4217n cc_4216n cc_4215n cc_4214n cc_4213n cc_4212n cc_4211n cc_4210n cc_4209n cc_4208n cc_4207n cc_4206n cc_4205n cc_4204n cc_4203n cc_4202n cc_4201n cc_4200n cc_4199n cc_4198n cc_4197n cc_4196n cc_4195n cc_4194n cc_4193n cc_4192n cc_4191n cc_4190n cc_4189n cc_4188n cc_4187n cc_4186n cc_4185n cc_4184n cc_4183n cc_4182n cc_4181n cc_4180n cc_4179n cc_4178n cc_4177n cc_4176n cc_4175n cc_4174n cc_4173n cc_4172n cc_4171n cc_4170n cc_4169n cc_4168n cc_4167n cc_4166n cc_4165n cc_4164n cc_4163n cc_4162n cc_4161n cc_4160n cc_4159n cc_4158n cc_4157n cc_4156n cc_4155n cc_4154n cc_4153n cc_4152n cc_4151n cc_4150n cc_4149n cc_4148n cc_4147n cc_4146n cc_4145n cc_4144n cc_4143n cc_4142n cc_4141n cc_4140n cc_4139n cc_4138n cc_4137n cc_4136n cc_4135n cc_4134n cc_4133n cc_4132n cc_4131n cc_4130n cc_4129n cc_4128n cc_4127n cc_4126n cc_4125n cc_4124n cc_4123n cc_4122n cc_4121n cc_4120n cc_4119n cc_4118n cc_4117n cc_4116n cc_4115n cc_4114n cc_4113n cc_4112n cc_4111n cc_4110n cc_4109n cc_4108n cc_4107n cc_4106n cc_4105n cc_4104n cc_4103n cc_4102n cc_4101n cc_4100n cc_4099n cc_4098n cc_4097n cc_4096n cc_4095n cc_4094n cc_4093n cc_4092n cc_4091n cc_4090n cc_4089n cc_4088n cc_4087n cc_4086n cc_4085n cc_4084n cc_4083n cc_4082n cc_4081n cc_4080n cc_4079n cc_4078n cc_4077n cc_4076n cc_4075n cc_4074n cc_4073n cc_4072n cc_4071n cc_4070n cc_4069n cc_4068n cc_4067n cc_4066n cc_4065n cc_4064n cc_4063n cc_4062n cc_4061n cc_4060n cc_4059n cc_4058n cc_4057n cc_4056n cc_4055n cc_4054n cc_4053n cc_4052n cc_4051n cc_4050n cc_4049n cc_4048n cc_4047n cc_4046n cc_4045n cc_4044n cc_4043n cc_4042n cc_4041n cc_4040n cc_4039n cc_4038n cc_4037n cc_4036n cc_4035n cc_4034n cc_4033n cc_4032n cc_4031n cc_4030n cc_4029n cc_4028n cc_4027n cc_4026n cc_4025n cc_4024n cc_4023n cc_4022n cc_4021n cc_4020n cc_4019n cc_4018n cc_4017n cc_4016n cc_4015n cc_4014n cc_4013n cc_4012n cc_4011n cc_4010n cc_4009n cc_4008n cc_4007n cc_4006n cc_4005n cc_4004n cc_4003n cc_4002n cc_4001n cc_4000n cc_3999n cc_3998n cc_3997n cc_3996n cc_3995n cc_3994n cc_3993n cc_3992n cc_3991n cc_3990n cc_3989n cc_3988n cc_3987n cc_3986n cc_3985n cc_3984n cc_3983n cc_3982n cc_3981n cc_3980n cc_3979n cc_3978n cc_3977n cc_3976n cc_3975n cc_3974n cc_3973n cc_3972n cc_3971n cc_3970n cc_3969n cc_3968n cc_3967n cc_3966n cc_3965n cc_3964n cc_3963n cc_3962n cc_3961n cc_3960n cc_3959n cc_3958n cc_3957n cc_3956n cc_3955n cc_3954n cc_3953n cc_3952n cc_3951n cc_3950n cc_3949n cc_3948n cc_3947n cc_3946n cc_3945n cc_3944n cc_3943n cc_3942n cc_3941n cc_3940n cc_3939n cc_3938n cc_3937n cc_3936n cc_3935n cc_3934n cc_3933n cc_3932n cc_3931n cc_3930n cc_3929n cc_3928n cc_3927n cc_3926n cc_3925n cc_3924n cc_3923n cc_3922n cc_3921n cc_3920n cc_3919n cc_3918n cc_3917n cc_3916n cc_3915n cc_3914n cc_3913n cc_3912n cc_3911n cc_3910n cc_3909n cc_3908n cc_3907n cc_3906n cc_3905n cc_3904n cc_3903n cc_3902n cc_3901n cc_3900n cc_3899n cc_3898n cc_3897n cc_3896n cc_3895n cc_3894n cc_3893n cc_3892n cc_3891n cc_3890n cc_3889n cc_3888n cc_3887n cc_3886n cc_3885n cc_3884n cc_3883n cc_3882n cc_3881n cc_3880n cc_3879n cc_3878n cc_3877n cc_3876n cc_3875n cc_3874n cc_3873n cc_3872n cc_3871n cc_3870n cc_3869n cc_3868n cc_3867n cc_3866n cc_3865n cc_3864n cc_3863n cc_3862n cc_3861n cc_3860n cc_3859n cc_3858n cc_3857n cc_3856n cc_3855n cc_3854n cc_3853n cc_3852n cc_3851n cc_3850n cc_3849n cc_3848n cc_3847n cc_3846n cc_3845n cc_3844n cc_3843n cc_3842n cc_3841n cc_3840n cc_3839n cc_3838n cc_3837n cc_3836n cc_3835n cc_3834n cc_3833n cc_3832n cc_3831n cc_3830n cc_3829n cc_3828n cc_3827n cc_3826n cc_3825n cc_3824n cc_3823n cc_3822n cc_3821n cc_3820n cc_3819n cc_3818n cc_3817n cc_3816n cc_3815n cc_3814n cc_3813n cc_3812n cc_3811n cc_3810n cc_3809n cc_3808n cc_3807n cc_3806n cc_3805n cc_3804n cc_3803n cc_3802n cc_3801n cc_3800n cc_3799n cc_3798n cc_3797n cc_3796n cc_3795n cc_3794n cc_3793n cc_3792n cc_3791n cc_3790n cc_3789n cc_3788n cc_3787n cc_3786n cc_3785n cc_3784n cc_3783n cc_3782n cc_3781n cc_3780n cc_3779n cc_3778n cc_3777n cc_3776n cc_3775n cc_3774n cc_3773n cc_3772n cc_3771n cc_3770n cc_3769n cc_3768n cc_3767n cc_3766n cc_3765n cc_3764n cc_3763n cc_3762n cc_3761n cc_3760n cc_3759n cc_3758n cc_3757n cc_3756n cc_3755n cc_3754n cc_3753n cc_3752n cc_3751n cc_3750n cc_3749n cc_3748n cc_3747n cc_3746n cc_3745n cc_3744n cc_3743n cc_3742n cc_3741n cc_3740n cc_3739n cc_3738n cc_3737n cc_3736n cc_3735n cc_3734n cc_3733n cc_3732n cc_3731n cc_3730n cc_3729n cc_3728n cc_3727n cc_3726n cc_3725n cc_3724n cc_3723n cc_3722n cc_3721n cc_3720n cc_3719n cc_3718n cc_3717n cc_3716n cc_3715n cc_3714n cc_3713n cc_3712n cc_3711n cc_3710n cc_3709n cc_3708n cc_3707n cc_3706n cc_3705n cc_3704n cc_3703n cc_3702n cc_3701n cc_3700n cc_3699n cc_3698n cc_3697n cc_3696n cc_3695n cc_3694n cc_3693n cc_3692n cc_3691n cc_3690n cc_3689n cc_3688n cc_3687n cc_3686n cc_3685n cc_3684n cc_3683n cc_3682n cc_3681n cc_3680n cc_3679n cc_3678n cc_3677n cc_3676n cc_3675n cc_3674n cc_3673n cc_3672n cc_3671n cc_3670n cc_3669n cc_3668n cc_3667n cc_3666n cc_3665n cc_3664n cc_3663n cc_3662n cc_3661n cc_3660n cc_3659n cc_3658n cc_3657n cc_3656n cc_3655n cc_3654n cc_3653n cc_3652n cc_3651n cc_3650n cc_3649n cc_3648n cc_3647n cc_3646n cc_3645n cc_3644n cc_3643n cc_3642n cc_3641n cc_3640n cc_3639n cc_3638n cc_3637n cc_3636n cc_3635n cc_3634n cc_3633n cc_3632n cc_3631n cc_3630n cc_3629n cc_3628n cc_3627n cc_3626n cc_3625n cc_3624n cc_3623n cc_3622n cc_3621n cc_3620n cc_3619n cc_3618n cc_3617n cc_3616n cc_3615n cc_3614n cc_3613n cc_3612n cc_3611n cc_3610n cc_3609n cc_3608n cc_3607n cc_3606n cc_3605n cc_3604n cc_3603n cc_3602n cc_3601n cc_3600n cc_3599n cc_3598n cc_3597n cc_3596n cc_3595n cc_3594n cc_3593n cc_3592n cc_3591n cc_3590n cc_3589n cc_3588n cc_3587n cc_3586n cc_3585n cc_3584n cc_3583n cc_3582n cc_3581n cc_3580n cc_3579n cc_3578n cc_3577n cc_3576n cc_3575n cc_3574n cc_3573n cc_3572n cc_3571n cc_3570n cc_3569n cc_3568n cc_3567n cc_3566n cc_3565n cc_3564n cc_3563n cc_3562n cc_3561n cc_3560n cc_3559n cc_3558n cc_3557n cc_3556n cc_3555n cc_3554n cc_3553n cc_3552n cc_3551n cc_3550n cc_3549n cc_3548n cc_3547n cc_3546n cc_3545n cc_3544n cc_3543n cc_3542n cc_3541n cc_3540n cc_3539n cc_3538n cc_3537n cc_3536n cc_3535n cc_3534n cc_3533n cc_3532n cc_3531n cc_3530n cc_3529n cc_3528n cc_3527n cc_3526n cc_3525n cc_3524n cc_3523n cc_3522n cc_3521n cc_3520n cc_3519n cc_3518n cc_3517n cc_3516n cc_3515n cc_3514n cc_3513n cc_3512n cc_3511n cc_3510n cc_3509n cc_3508n cc_3507n cc_3506n cc_3505n cc_3504n cc_3503n cc_3502n cc_3501n cc_3500n cc_3499n cc_3498n cc_3497n cc_3496n cc_3495n cc_3494n cc_3493n cc_3492n cc_3491n cc_3490n cc_3489n cc_3488n cc_3487n cc_3486n cc_3485n cc_3484n cc_3483n cc_3482n cc_3481n cc_3480n cc_3479n cc_3478n cc_3477n cc_3476n cc_3475n cc_3474n cc_3473n cc_3472n cc_3471n cc_3470n cc_3469n cc_3468n cc_3467n cc_3466n cc_3465n cc_3464n cc_3463n cc_3462n cc_3461n cc_3460n cc_3459n cc_3458n cc_3457n cc_3456n cc_3455n cc_3454n cc_3453n cc_3452n cc_3451n cc_3450n cc_3449n cc_3448n cc_3447n cc_3446n cc_3445n cc_3444n cc_3443n cc_3442n cc_3441n cc_3440n cc_3439n cc_3438n cc_3437n cc_3436n cc_3435n cc_3434n cc_3433n cc_3432n cc_3431n cc_3430n cc_3429n cc_3428n cc_3427n cc_3426n cc_3425n cc_3424n cc_3423n cc_3422n cc_3421n cc_3420n cc_3419n cc_3418n cc_3417n cc_3416n cc_3415n cc_3414n cc_3413n cc_3412n cc_3411n cc_3410n cc_3409n cc_3408n cc_3407n cc_3406n cc_3405n cc_3404n cc_3403n cc_3402n cc_3401n cc_3400n cc_3399n cc_3398n cc_3397n cc_3396n cc_3395n cc_3394n cc_3393n cc_3392n cc_3391n cc_3390n cc_3389n cc_3388n cc_3387n cc_3386n cc_3385n cc_3384n cc_3383n cc_3382n cc_3381n cc_3380n cc_3379n cc_3378n cc_3377n cc_3376n cc_3375n cc_3374n cc_3373n cc_3372n cc_3371n cc_3370n cc_3369n cc_3368n cc_3367n cc_3366n cc_3365n cc_3364n cc_3363n cc_3362n cc_3361n cc_3360n cc_3359n cc_3358n cc_3357n cc_3356n cc_3355n cc_3354n cc_3353n cc_3352n cc_3351n cc_3350n cc_3349n cc_3348n cc_3347n cc_3346n cc_3345n cc_3344n cc_3343n cc_3342n cc_3341n cc_3340n cc_3339n cc_3338n cc_3337n cc_3336n cc_3335n cc_3334n cc_3333n cc_3332n cc_3331n cc_3330n cc_3329n cc_3328n cc_3327n cc_3326n cc_3325n cc_3324n cc_3323n cc_3322n cc_3321n cc_3320n cc_3319n cc_3318n cc_3317n cc_3316n cc_3315n cc_3314n cc_3313n cc_3312n cc_3311n cc_3310n cc_3309n cc_3308n cc_3307n cc_3306n cc_3305n cc_3304n cc_3303n cc_3302n cc_3301n cc_3300n cc_3299n cc_3298n cc_3297n cc_3296n cc_3295n cc_3294n cc_3293n cc_3292n cc_3291n cc_3290n cc_3289n cc_3288n cc_3287n cc_3286n cc_3285n cc_3284n cc_3283n cc_3282n cc_3281n cc_3280n cc_3279n cc_3278n cc_3277n cc_3276n cc_3275n cc_3274n cc_3273n cc_3272n cc_3271n cc_3270n cc_3269n cc_3268n cc_3267n cc_3266n cc_3265n cc_3264n cc_3263n cc_3262n cc_3261n cc_3260n cc_3259n cc_3258n cc_3257n cc_3256n cc_3255n cc_3254n cc_3253n cc_3252n cc_3251n cc_3250n cc_3249n cc_3248n cc_3247n cc_3246n cc_3245n cc_3244n cc_3243n cc_3242n cc_3241n cc_3240n cc_3239n cc_3238n cc_3237n cc_3236n cc_3235n cc_3234n cc_3233n cc_3232n cc_3231n cc_3230n cc_3229n cc_3228n cc_3227n cc_3226n cc_3225n cc_3224n cc_3223n cc_3222n cc_3221n cc_3220n cc_3219n cc_3218n cc_3217n cc_3216n cc_3215n cc_3214n cc_3213n cc_3212n cc_3211n cc_3210n cc_3209n cc_3208n cc_3207n cc_3206n cc_3205n cc_3204n cc_3203n cc_3202n cc_3201n cc_3200n cc_3199n cc_3198n cc_3197n cc_3196n cc_3195n cc_3194n cc_3193n cc_3192n cc_3191n cc_3190n cc_3189n cc_3188n cc_3187n cc_3186n cc_3185n cc_3184n cc_3183n cc_3182n cc_3181n cc_3180n cc_3179n cc_3178n cc_3177n cc_3176n cc_3175n cc_3174n cc_3173n cc_3172n cc_3171n cc_3170n cc_3169n cc_3168n cc_3167n cc_3166n cc_3165n cc_3164n cc_3163n cc_3162n cc_3161n cc_3160n cc_3159n cc_3158n cc_3157n cc_3156n cc_3155n cc_3154n cc_3153n cc_3152n cc_3151n cc_3150n cc_3149n cc_3148n cc_3147n cc_3146n cc_3145n cc_3144n cc_3143n cc_3142n cc_3141n cc_3140n cc_3139n cc_3138n cc_3137n cc_3136n cc_3135n cc_3134n cc_3133n cc_3132n cc_3131n cc_3130n cc_3129n cc_3128n cc_3127n cc_3126n cc_3125n cc_3124n cc_3123n cc_3122n cc_3121n cc_3120n cc_3119n cc_3118n cc_3117n cc_3116n cc_3115n cc_3114n cc_3113n cc_3112n cc_3111n cc_3110n cc_3109n cc_3108n cc_3107n cc_3106n cc_3105n cc_3104n cc_3103n cc_3102n cc_3101n cc_3100n cc_3099n cc_3098n cc_3097n cc_3096n cc_3095n cc_3094n cc_3093n cc_3092n cc_3091n cc_3090n cc_3089n cc_3088n cc_3087n cc_3086n cc_3085n cc_3084n cc_3083n cc_3082n cc_3081n cc_3080n cc_3079n cc_3078n cc_3077n cc_3076n cc_3075n cc_3074n cc_3073n cc_3072n cc_3071n cc_3070n cc_3069n cc_3068n cc_3067n cc_3066n cc_3065n cc_3064n cc_3063n cc_3062n cc_3061n cc_3060n cc_3059n cc_3058n cc_3057n cc_3056n cc_3055n cc_3054n cc_3053n cc_3052n cc_3051n cc_3050n cc_3049n cc_3048n cc_3047n cc_3046n cc_3045n cc_3044n cc_3043n cc_3042n cc_3041n cc_3040n cc_3039n cc_3038n cc_3037n cc_3036n cc_3035n cc_3034n cc_3033n cc_3032n cc_3031n cc_3030n cc_3029n cc_3028n cc_3027n cc_3026n cc_3025n cc_3024n cc_3023n cc_3022n cc_3021n cc_3020n cc_3019n cc_3018n cc_3017n cc_3016n cc_3015n cc_3014n cc_3013n cc_3012n cc_3011n cc_3010n cc_3009n cc_3008n cc_3007n cc_3006n cc_3005n cc_3004n cc_3003n cc_3002n cc_3001n cc_3000n cc_2999n cc_2998n cc_2997n cc_2996n cc_2995n cc_2994n cc_2993n cc_2992n cc_2991n cc_2990n cc_2989n cc_2988n cc_2987n cc_2986n cc_2985n cc_2984n cc_2983n cc_2982n cc_2981n cc_2980n cc_2979n cc_2978n cc_2977n cc_2976n cc_2975n cc_2974n cc_2973n cc_2972n cc_2971n cc_2970n cc_2969n cc_2968n cc_2967n cc_2966n cc_2965n cc_2964n cc_2963n cc_2962n cc_2961n cc_2960n cc_2959n cc_2958n cc_2957n cc_2956n cc_2955n cc_2954n cc_2953n cc_2952n cc_2951n cc_2950n cc_2949n cc_2948n cc_2947n cc_2946n cc_2945n cc_2944n cc_2943n cc_2942n cc_2941n cc_2940n cc_2939n cc_2938n cc_2937n cc_2936n cc_2935n cc_2934n cc_2933n cc_2932n cc_2931n cc_2930n cc_2929n cc_2928n cc_2927n cc_2926n cc_2925n cc_2924n cc_2923n cc_2922n cc_2921n cc_2920n cc_2919n cc_2918n cc_2917n cc_2916n cc_2915n cc_2914n cc_2913n cc_2912n cc_2911n cc_2910n cc_2909n cc_2908n cc_2907n cc_2906n cc_2905n cc_2904n cc_2903n cc_2902n cc_2901n cc_2900n cc_2899n cc_2898n cc_2897n cc_2896n cc_2895n cc_2894n cc_2893n cc_2892n cc_2891n cc_2890n cc_2889n cc_2888n cc_2887n cc_2886n cc_2885n cc_2884n cc_2883n cc_2882n cc_2881n cc_2880n cc_2879n cc_2878n cc_2877n cc_2876n cc_2875n cc_2874n cc_2873n cc_2872n cc_2871n cc_2870n cc_2869n cc_2868n cc_2867n cc_2866n cc_2865n cc_2864n cc_2863n cc_2862n cc_2861n cc_2860n cc_2859n cc_2858n cc_2857n cc_2856n cc_2855n cc_2854n cc_2853n cc_2852n cc_2851n cc_2850n cc_2849n cc_2848n cc_2847n cc_2846n cc_2845n cc_2844n cc_2843n cc_2842n cc_2841n cc_2840n cc_2839n cc_2838n cc_2837n cc_2836n cc_2835n cc_2834n cc_2833n cc_2832n cc_2831n cc_2830n cc_2829n cc_2828n cc_2827n cc_2826n cc_2825n cc_2824n cc_2823n cc_2822n cc_2821n cc_2820n cc_2819n cc_2818n cc_2817n cc_2816n cc_2815n cc_2814n cc_2813n cc_2812n cc_2811n cc_2810n cc_2809n cc_2808n cc_2807n cc_2806n cc_2805n cc_2804n cc_2803n cc_2802n cc_2801n cc_2800n cc_2799n cc_2798n cc_2797n cc_2796n cc_2795n cc_2794n cc_2793n cc_2792n cc_2791n cc_2790n cc_2789n cc_2788n cc_2787n cc_2786n cc_2785n cc_2784n cc_2783n cc_2782n cc_2781n cc_2780n cc_2779n cc_2778n cc_2777n cc_2776n cc_2775n cc_2774n cc_2773n cc_2772n cc_2771n cc_2770n cc_2769n cc_2768n cc_2767n cc_2766n cc_2765n cc_2764n cc_2763n cc_2762n cc_2761n cc_2760n cc_2759n cc_2758n cc_2757n cc_2756n cc_2755n cc_2754n cc_2753n cc_2752n cc_2751n cc_2750n cc_2749n cc_2748n cc_2747n cc_2746n cc_2745n cc_2744n cc_2743n cc_2742n cc_2741n cc_2740n cc_2739n cc_2738n cc_2737n cc_2736n cc_2735n cc_2734n cc_2733n cc_2732n cc_2731n cc_2730n cc_2729n cc_2728n cc_2727n cc_2726n cc_2725n cc_2724n cc_2723n cc_2722n cc_2721n cc_2720n cc_2719n cc_2718n cc_2717n cc_2716n cc_2715n cc_2714n cc_2713n cc_2712n cc_2711n cc_2710n cc_2709n cc_2708n cc_2707n cc_2706n cc_2705n cc_2704n cc_2703n cc_2702n cc_2701n cc_2700n cc_2699n cc_2698n cc_2697n cc_2696n cc_2695n cc_2694n cc_2693n cc_2692n cc_2691n cc_2690n cc_2689n cc_2688n cc_2687n cc_2686n cc_2685n cc_2684n cc_2683n cc_2682n cc_2681n cc_2680n cc_2679n cc_2678n cc_2677n cc_2676n cc_2675n cc_2674n cc_2673n cc_2672n cc_2671n cc_2670n cc_2669n cc_2668n cc_2667n cc_2666n cc_2665n cc_2664n cc_2663n cc_2662n cc_2661n cc_2660n cc_2659n cc_2658n cc_2657n cc_2656n cc_2655n cc_2654n cc_2653n cc_2652n cc_2651n cc_2650n cc_2649n cc_2648n cc_2647n cc_2646n cc_2645n cc_2644n cc_2643n cc_2642n cc_2641n cc_2640n cc_2639n cc_2638n cc_2637n cc_2636n cc_2635n cc_2634n cc_2633n cc_2632n cc_2631n cc_2630n cc_2629n cc_2628n cc_2627n cc_2626n cc_2625n cc_2624n cc_2623n cc_2622n cc_2621n cc_2620n cc_2619n cc_2618n cc_2617n cc_2616n cc_2615n cc_2614n cc_2613n cc_2612n cc_2611n cc_2610n cc_2609n cc_2608n cc_2607n cc_2606n cc_2605n cc_2604n cc_2603n cc_2602n cc_2601n cc_2600n cc_2599n cc_2598n cc_2597n cc_2596n cc_2595n cc_2594n cc_2593n cc_2592n cc_2591n cc_2590n cc_2589n cc_2588n cc_2587n cc_2586n cc_2585n cc_2584n cc_2583n cc_2582n cc_2581n cc_2580n cc_2579n cc_2578n cc_2577n cc_2576n cc_2575n cc_2574n cc_2573n cc_2572n cc_2571n cc_2570n cc_2569n cc_2568n cc_2567n cc_2566n cc_2565n cc_2564n cc_2563n cc_2562n cc_2561n cc_2560n cc_2559n cc_2558n cc_2557n cc_2556n cc_2555n cc_2554n cc_2553n cc_2552n cc_2551n cc_2550n cc_2549n cc_2548n cc_2547n cc_2546n cc_2545n cc_2544n cc_2543n cc_2542n cc_2541n cc_2540n cc_2539n cc_2538n cc_2537n cc_2536n cc_2535n cc_2534n cc_2533n cc_2532n cc_2531n cc_2530n cc_2529n cc_2528n cc_2527n cc_2526n cc_2525n cc_2524n cc_2523n cc_2522n cc_2521n cc_2520n cc_2519n cc_2518n cc_2517n cc_2516n cc_2515n cc_2514n cc_2513n cc_2512n cc_2511n cc_2510n cc_2509n cc_2508n cc_2507n cc_2506n cc_2505n cc_2504n cc_2503n cc_2502n cc_2501n cc_2500n cc_2499n cc_2498n cc_2497n cc_2496n cc_2495n cc_2494n cc_2493n cc_2492n cc_2491n cc_2490n cc_2489n cc_2488n cc_2487n cc_2486n cc_2485n cc_2484n cc_2483n cc_2482n cc_2481n cc_2480n cc_2479n cc_2478n cc_2477n cc_2476n cc_2475n cc_2474n cc_2473n cc_2472n cc_2471n cc_2470n cc_2469n cc_2468n cc_2467n cc_2466n cc_2465n cc_2464n cc_2463n cc_2462n cc_2461n cc_2460n cc_2459n cc_2458n cc_2457n cc_2456n cc_2455n cc_2454n cc_2453n cc_2452n cc_2451n cc_2450n cc_2449n cc_2448n cc_2447n cc_2446n cc_2445n cc_2444n cc_2443n cc_2442n cc_2441n cc_2440n cc_2439n cc_2438n cc_2437n cc_2436n cc_2435n cc_2434n cc_2433n cc_2432n cc_2431n cc_2430n cc_2429n cc_2428n cc_2427n cc_2426n cc_2425n cc_2424n cc_2423n cc_2422n cc_2421n cc_2420n cc_2419n cc_2418n cc_2417n cc_2416n cc_2415n cc_2414n cc_2413n cc_2412n cc_2411n cc_2410n cc_2409n cc_2408n cc_2407n cc_2406n cc_2405n cc_2404n cc_2403n cc_2402n cc_2401n cc_2400n cc_2399n cc_2398n cc_2397n cc_2396n cc_2395n cc_2394n cc_2393n cc_2392n cc_2391n cc_2390n cc_2389n cc_2388n cc_2387n cc_2386n cc_2385n cc_2384n cc_2383n cc_2382n cc_2381n cc_2380n cc_2379n cc_2378n cc_2377n cc_2376n cc_2375n cc_2374n cc_2373n cc_2372n cc_2371n cc_2370n cc_2369n cc_2368n cc_2367n cc_2366n cc_2365n cc_2364n cc_2363n cc_2362n cc_2361n cc_2360n cc_2359n cc_2358n cc_2357n cc_2356n cc_2355n cc_2354n cc_2353n cc_2352n cc_2351n cc_2350n cc_2349n cc_2348n cc_2347n cc_2346n cc_2345n cc_2344n cc_2343n cc_2342n cc_2341n cc_2340n cc_2339n cc_2338n cc_2337n cc_2336n cc_2335n cc_2334n cc_2333n cc_2332n cc_2331n cc_2330n cc_2329n cc_2328n cc_2327n cc_2326n cc_2325n cc_2324n cc_2323n cc_2322n cc_2321n cc_2320n cc_2319n cc_2318n cc_2317n cc_2316n cc_2315n cc_2314n cc_2313n cc_2312n cc_2311n cc_2310n cc_2309n cc_2308n cc_2307n cc_2306n cc_2305n cc_2304n cc_2303n cc_2302n cc_2301n cc_2300n cc_2299n cc_2298n cc_2297n cc_2296n cc_2295n cc_2294n cc_2293n cc_2292n cc_2291n cc_2290n cc_2289n cc_2288n cc_2287n cc_2286n cc_2285n cc_2284n cc_2283n cc_2282n cc_2281n cc_2280n cc_2279n cc_2278n cc_2277n cc_2276n cc_2275n cc_2274n cc_2273n cc_2272n cc_2271n cc_2270n cc_2269n cc_2268n cc_2267n cc_2266n cc_2265n cc_2264n cc_2263n cc_2262n cc_2261n cc_2260n cc_2259n cc_2258n cc_2257n cc_2256n cc_2255n cc_2254n cc_2253n cc_2252n cc_2251n cc_2250n cc_2249n cc_2248n cc_2247n cc_2246n cc_2245n cc_2244n cc_2243n cc_2242n cc_2241n cc_2240n cc_2239n cc_2238n cc_2237n cc_2236n cc_2235n cc_2234n cc_2233n cc_2232n cc_2231n cc_2230n cc_2229n cc_2228n cc_2227n cc_2226n cc_2225n cc_2224n cc_2223n cc_2222n cc_2221n cc_2220n cc_2219n cc_2218n cc_2217n cc_2216n cc_2215n cc_2214n cc_2213n cc_2212n cc_2211n cc_2210n cc_2209n cc_2208n cc_2207n cc_2206n cc_2205n cc_2204n cc_2203n cc_2202n cc_2201n cc_2200n cc_2199n cc_2198n cc_2197n cc_2196n cc_2195n cc_2194n cc_2193n cc_2192n cc_2191n cc_2190n cc_2189n cc_2188n cc_2187n cc_2186n cc_2185n cc_2184n cc_2183n cc_2182n cc_2181n cc_2180n cc_2179n cc_2178n cc_2177n cc_2176n cc_2175n cc_2174n cc_2173n cc_2172n cc_2171n cc_2170n cc_2169n cc_2168n cc_2167n cc_2166n cc_2165n cc_2164n cc_2163n cc_2162n cc_2161n cc_2160n cc_2159n cc_2158n cc_2157n cc_2156n cc_2155n cc_2154n cc_2153n cc_2152n cc_2151n cc_2150n cc_2149n cc_2148n cc_2147n cc_2146n cc_2145n cc_2144n cc_2143n cc_2142n cc_2141n cc_2140n cc_2139n cc_2138n cc_2137n cc_2136n cc_2135n cc_2134n cc_2133n cc_2132n cc_2131n cc_2130n cc_2129n cc_2128n cc_2127n cc_2126n cc_2125n cc_2124n cc_2123n cc_2122n cc_2121n cc_2120n cc_2119n cc_2118n cc_2117n cc_2116n cc_2115n cc_2114n cc_2113n cc_2112n cc_2111n cc_2110n cc_2109n cc_2108n cc_2107n cc_2106n cc_2105n cc_2104n cc_2103n cc_2102n cc_2101n cc_2100n cc_2099n cc_2098n cc_2097n cc_2096n cc_2095n cc_2094n cc_2093n cc_2092n cc_2091n cc_2090n cc_2089n cc_2088n cc_2087n cc_2086n cc_2085n cc_2084n cc_2083n cc_2082n cc_2081n cc_2080n cc_2079n cc_2078n cc_2077n cc_2076n cc_2075n cc_2074n cc_2073n cc_2072n cc_2071n cc_2070n cc_2069n cc_2068n cc_2067n cc_2066n cc_2065n cc_2064n cc_2063n cc_2062n cc_2061n cc_2060n cc_2059n cc_2058n cc_2057n cc_2056n cc_2055n cc_2054n cc_2053n cc_2052n cc_2051n cc_2050n cc_2049n cc_2048n cc_2047n cc_2046n cc_2045n cc_2044n cc_2043n cc_2042n cc_2041n cc_2040n cc_2039n cc_2038n cc_2037n cc_2036n cc_2035n cc_2034n cc_2033n cc_2032n cc_2031n cc_2030n cc_2029n cc_2028n cc_2027n cc_2026n cc_2025n cc_2024n cc_2023n cc_2022n cc_2021n cc_2020n cc_2019n cc_2018n cc_2017n cc_2016n cc_2015n cc_2014n cc_2013n cc_2012n cc_2011n cc_2010n cc_2009n cc_2008n cc_2007n cc_2006n cc_2005n cc_2004n cc_2003n cc_2002n cc_2001n cc_2000n cc_1999n cc_1998n cc_1997n cc_1996n cc_1995n cc_1994n cc_1993n cc_1992n cc_1991n cc_1990n cc_1989n cc_1988n cc_1987n cc_1986n cc_1985n cc_1984n cc_1983n cc_1982n cc_1981n cc_1980n cc_1979n cc_1978n cc_1977n cc_1976n cc_1975n cc_1974n cc_1973n cc_1972n cc_1971n cc_1970n cc_1969n cc_1968n cc_1967n cc_1966n cc_1965n cc_1964n cc_1963n cc_1962n cc_1961n cc_1960n cc_1959n cc_1958n cc_1957n cc_1956n cc_1955n cc_1954n cc_1953n cc_1952n cc_1951n cc_1950n cc_1949n cc_1948n cc_1947n cc_1946n cc_1945n cc_1944n cc_1943n cc_1942n cc_1941n cc_1940n cc_1939n cc_1938n cc_1937n cc_1936n cc_1935n cc_1934n cc_1933n cc_1932n cc_1931n cc_1930n cc_1929n cc_1928n cc_1927n cc_1926n cc_1925n cc_1924n cc_1923n cc_1922n cc_1921n cc_1920n cc_1919n cc_1918n cc_1917n cc_1916n cc_1915n cc_1914n cc_1913n cc_1912n cc_1911n cc_1910n cc_1909n cc_1908n cc_1907n cc_1906n cc_1905n cc_1904n cc_1903n cc_1902n cc_1901n cc_1900n cc_1899n cc_1898n cc_1897n cc_1896n cc_1895n cc_1894n cc_1893n cc_1892n cc_1891n cc_1890n cc_1889n cc_1888n cc_1887n cc_1886n cc_1885n cc_1884n cc_1883n cc_1882n cc_1881n cc_1880n cc_1879n cc_1878n cc_1877n cc_1876n cc_1875n cc_1874n cc_1873n cc_1872n cc_1871n cc_1870n cc_1869n cc_1868n cc_1867n cc_1866n cc_1865n cc_1864n cc_1863n cc_1862n cc_1861n cc_1860n cc_1859n cc_1858n cc_1857n cc_1856n cc_1855n cc_1854n cc_1853n cc_1852n cc_1851n cc_1850n cc_1849n cc_1848n cc_1847n cc_1846n cc_1845n cc_1844n cc_1843n cc_1842n cc_1841n cc_1840n cc_1839n cc_1838n cc_1837n cc_1836n cc_1835n cc_1834n cc_1833n cc_1832n cc_1831n cc_1830n cc_1829n cc_1828n cc_1827n cc_1826n cc_1825n cc_1824n cc_1823n cc_1822n cc_1821n cc_1820n cc_1819n cc_1818n cc_1817n cc_1816n cc_1815n cc_1814n cc_1813n cc_1812n cc_1811n cc_1810n cc_1809n cc_1808n cc_1807n cc_1806n cc_1805n cc_1804n cc_1803n cc_1802n cc_1801n cc_1800n cc_1799n cc_1798n cc_1797n cc_1796n cc_1795n cc_1794n cc_1793n cc_1792n cc_1791n cc_1790n cc_1789n cc_1788n cc_1787n cc_1786n cc_1785n cc_1784n cc_1783n cc_1782n cc_1781n cc_1780n cc_1779n cc_1778n cc_1777n cc_1776n cc_1775n cc_1774n cc_1773n cc_1772n cc_1771n cc_1770n cc_1769n cc_1768n cc_1767n cc_1766n cc_1765n cc_1764n cc_1763n cc_1762n cc_1761n cc_1760n cc_1759n cc_1758n cc_1757n cc_1756n cc_1755n cc_1754n cc_1753n cc_1752n cc_1751n cc_1750n cc_1749n cc_1748n cc_1747n cc_1746n cc_1745n cc_1744n cc_1743n cc_1742n cc_1741n cc_1740n cc_1739n cc_1738n cc_1737n cc_1736n cc_1735n cc_1734n cc_1733n cc_1732n cc_1731n cc_1730n cc_1729n cc_1728n cc_1727n cc_1726n cc_1725n cc_1724n cc_1723n cc_1722n cc_1721n cc_1720n cc_1719n cc_1718n cc_1717n cc_1716n cc_1715n cc_1714n cc_1713n cc_1712n cc_1711n cc_1710n cc_1709n cc_1708n cc_1707n cc_1706n cc_1705n cc_1704n cc_1703n cc_1702n cc_1701n cc_1700n cc_1699n cc_1698n cc_1697n cc_1696n cc_1695n cc_1694n cc_1693n cc_1692n cc_1691n cc_1690n cc_1689n cc_1688n cc_1687n cc_1686n cc_1685n cc_1684n cc_1683n cc_1682n cc_1681n cc_1680n cc_1679n cc_1678n cc_1677n cc_1676n cc_1675n cc_1674n cc_1673n cc_1672n cc_1671n cc_1670n cc_1669n cc_1668n cc_1667n cc_1666n cc_1665n cc_1664n cc_1663n cc_1662n cc_1661n cc_1660n cc_1659n cc_1658n cc_1657n cc_1656n cc_1655n cc_1654n cc_1653n cc_1652n cc_1651n cc_1650n cc_1649n cc_1648n cc_1647n cc_1646n cc_1645n cc_1644n cc_1643n cc_1642n cc_1641n cc_1640n cc_1639n cc_1638n cc_1637n cc_1636n cc_1635n cc_1634n cc_1633n cc_1632n cc_1631n cc_1630n cc_1629n cc_1628n cc_1627n cc_1626n cc_1625n cc_1624n cc_1623n cc_1622n cc_1621n cc_1620n cc_1619n cc_1618n cc_1617n cc_1616n cc_1615n cc_1614n cc_1613n cc_1612n cc_1611n cc_1610n cc_1609n cc_1608n cc_1607n cc_1606n cc_1605n cc_1604n cc_1603n cc_1602n cc_1601n cc_1600n cc_1599n cc_1598n cc_1597n cc_1596n cc_1595n cc_1594n cc_1593n cc_1592n cc_1591n cc_1590n cc_1589n cc_1588n cc_1587n cc_1586n cc_1585n cc_1584n cc_1583n cc_1582n cc_1581n cc_1580n cc_1579n cc_1578n cc_1577n cc_1576n cc_1575n cc_1574n cc_1573n cc_1572n cc_1571n cc_1570n cc_1569n cc_1568n cc_1567n cc_1566n cc_1565n cc_1564n cc_1563n cc_1562n cc_1561n cc_1560n cc_1559n cc_1558n cc_1557n cc_1556n cc_1555n cc_1554n cc_1553n cc_1552n cc_1551n cc_1550n cc_1549n cc_1548n cc_1547n cc_1546n cc_1545n cc_1544n cc_1543n cc_1542n cc_1541n cc_1540n cc_1539n cc_1538n cc_1537n cc_1536n cc_1535n cc_1534n cc_1533n cc_1532n cc_1531n cc_1530n cc_1529n cc_1528n cc_1527n cc_1526n cc_1525n cc_1524n cc_1523n cc_1522n cc_1521n cc_1520n cc_1519n cc_1518n cc_1517n cc_1516n cc_1515n cc_1514n cc_1513n cc_1512n cc_1511n cc_1510n cc_1509n cc_1508n cc_1507n cc_1506n cc_1505n cc_1504n cc_1503n cc_1502n cc_1501n cc_1500n cc_1499n cc_1498n cc_1497n cc_1496n cc_1495n cc_1494n cc_1493n cc_1492n cc_1491n cc_1490n cc_1489n cc_1488n cc_1487n cc_1486n cc_1485n cc_1484n cc_1483n cc_1482n cc_1481n cc_1480n cc_1479n cc_1478n cc_1477n cc_1476n cc_1475n cc_1474n cc_1473n cc_1472n cc_1471n cc_1470n cc_1469n cc_1468n cc_1467n cc_1466n cc_1465n cc_1464n cc_1463n cc_1462n cc_1461n cc_1460n cc_1459n cc_1458n cc_1457n cc_1456n cc_1455n cc_1454n cc_1453n cc_1452n cc_1451n cc_1450n cc_1449n cc_1448n cc_1447n cc_1446n cc_1445n cc_1444n cc_1443n cc_1442n cc_1441n cc_1440n cc_1439n cc_1438n cc_1437n cc_1436n cc_1435n cc_1434n cc_1433n cc_1432n cc_1431n cc_1430n cc_1429n cc_1428n cc_1427n cc_1426n cc_1425n cc_1424n cc_1423n cc_1422n cc_1421n cc_1420n cc_1419n cc_1418n cc_1417n cc_1416n cc_1415n cc_1414n cc_1413n cc_1412n cc_1411n cc_1410n cc_1409n cc_1408n cc_1407n cc_1406n cc_1405n cc_1404n cc_1403n cc_1402n cc_1401n cc_1400n cc_1399n cc_1398n cc_1397n cc_1396n cc_1395n cc_1394n cc_1393n cc_1392n cc_1391n cc_1390n cc_1389n cc_1388n cc_1387n cc_1386n cc_1385n cc_1384n cc_1383n cc_1382n cc_1381n cc_1380n cc_1379n cc_1378n cc_1377n cc_1376n cc_1375n cc_1374n cc_1373n cc_1372n cc_1371n cc_1370n cc_1369n cc_1368n cc_1367n cc_1366n cc_1365n cc_1364n cc_1363n cc_1362n cc_1361n cc_1360n cc_1359n cc_1358n cc_1357n cc_1356n cc_1355n cc_1354n cc_1353n cc_1352n cc_1351n cc_1350n cc_1349n cc_1348n cc_1347n cc_1346n cc_1345n cc_1344n cc_1343n cc_1342n cc_1341n cc_1340n cc_1339n cc_1338n cc_1337n cc_1336n cc_1335n cc_1334n cc_1333n cc_1332n cc_1331n cc_1330n cc_1329n cc_1328n cc_1327n cc_1326n cc_1325n cc_1324n cc_1323n cc_1322n cc_1321n cc_1320n cc_1319n cc_1318n cc_1317n cc_1316n cc_1315n cc_1314n cc_1313n cc_1312n cc_1311n cc_1310n cc_1309n cc_1308n cc_1307n cc_1306n cc_1305n cc_1304n cc_1303n cc_1302n cc_1301n cc_1300n cc_1299n cc_1298n cc_1297n cc_1296n cc_1295n cc_1294n cc_1293n cc_1292n cc_1291n cc_1290n cc_1289n cc_1288n cc_1287n cc_1286n cc_1285n cc_1284n cc_1283n cc_1282n cc_1281n cc_1280n cc_1279n cc_1278n cc_1277n cc_1276n cc_1275n cc_1274n cc_1273n cc_1272n cc_1271n cc_1270n cc_1269n cc_1268n cc_1267n cc_1266n cc_1265n cc_1264n cc_1263n cc_1262n cc_1261n cc_1260n cc_1259n cc_1258n cc_1257n cc_1256n cc_1255n cc_1254n cc_1253n cc_1252n cc_1251n cc_1250n cc_1249n cc_1248n cc_1247n cc_1246n cc_1245n cc_1244n cc_1243n cc_1242n cc_1241n cc_1240n cc_1239n cc_1238n cc_1237n cc_1236n cc_1235n cc_1234n cc_1233n cc_1232n cc_1231n cc_1230n cc_1229n cc_1228n cc_1227n cc_1226n cc_1225n cc_1224n cc_1223n cc_1222n cc_1221n cc_1220n cc_1219n cc_1218n cc_1217n cc_1216n cc_1215n cc_1214n cc_1213n cc_1212n cc_1211n cc_1210n cc_1209n cc_1208n cc_1207n cc_1206n cc_1205n cc_1204n cc_1203n cc_1202n cc_1201n cc_1200n cc_1199n cc_1198n cc_1197n cc_1196n cc_1195n cc_1194