HEADER
"PSFversion" "1.00"
"__NEXT_FILE__" "Sim_whole_sram_4x4"
