HEADER
"PSFversion" "1.00"
"__NEXT_FILE__" "Sim_sram_6t_cell"
