HEADER
"PSFversion" "1.00"
"design" "(\"my_sram\" \"Sim_whole_sram_4x4\" \"config\" \"\")"
"simulator" "spectre"
"temperature" "27"
"host" ""
"date" "Mar 19 10:03:46 2026"
"title" ""
"analysisList" "()"
END
