HEADER
"PSFversion" "1.00"
"Time Stamp" "Mar 19 10:03:46 2026"
TYPE
"variable" STRUCT(
"value" FLOAT DOUBLE
) PROP( "key" "element" )
VALUE
"t_period_2" "variable" ( 380e-12 ) PROP( )
"t_period" "variable" ( 760e-12 ) PROP( )
"tbit" "variable" ( 95e-12 ) PROP( )
"vdd" "variable" ( 1.1 ) PROP( )
"temp" "variable" ( 27 ) PROP( )
END
